543
Atoms. Timestep: 200000
Zr 14.9836 1.2191 3.96188
C 14.6644 4.05768 5.54797
C 19.3697 1.48358 8.62368
O 14.7222 3.38888 4.42459
O 18.2971 3.78039 6.39936
O 12.9058 1.02495 4.70423
O 15.5569 2.15043 2.00183
O 13.9858 20.2875 2.94026
O 18.1992 1.88648 8.54891
O 15.0526 1.15696 6.13659
C 6.02826 10.5396 6.86021
C 13.3111 5.95316 4.50293
C 13.855 5.35853 5.60783
C 10.4541 9.04424 6.1575
C 11.8692 9.0323 6.24987
C 12.5588 7.71166 6.04002
C 7.41498 10.5425 7.01368
C 12.599 7.173 4.74914
C 13.5508 5.77711 6.91868
C 13.2133 7.10139 7.09842
Zr 1.21825 11.5305 6.94299
C 1.73298 14.3318 5.40765
C 31.8733 11.7438 1.78917
O 2.22967 13.272 5.99613
O 32.371 14.0184 4.39953
O 3.28056 10.8051 6.54134
O 0.699631 12.9446 8.49656
O 1.34641 10.3494 8.82252
O 32.766 12.5279 2.22788
O 1.19437 11.3778 4.77945
C 10.1601 0.953617 4.643
C 2.10462 16.6265 6.26279
C 2.46755 15.6272 5.35435
C 5.80006 19.3497 5.27497
C 4.40759 19.4093 5.19824
C 3.62466 18.1706 5.2198
C 8.73322 1.07405 4.7357
C 2.69226 17.8766 6.22495
C 3.23305 16.0335 4.22946
C 3.87692 17.262 4.23022
Zr 15.0616 19.5053 7.06592
C 6.17416 9.50912 4.73896
C 12.7565 15.0019 6.6925
C 13.7962 15.2589 5.80885
C 10.3936 11.42 6.00613
C 11.8067 11.4518 6.11649
C 12.5572 12.7476 5.94696
C 7.59788 9.61833 4.76215
C 14.416 16.6325 5.73372
C 12.1389 13.7861 6.77814
C 14.2065 14.1938 4.92285
C 18.7564 19.0986 2.18463
C 13.6405 12.9329 5.02534
O 14.3152 17.3872 6.75682
O 17.8378 16.8204 4.97911
O 12.9349 19.7311 6.74882
O 15.9029 18.2918 8.77783
O 14.6538 0.105266 8.71505
O 17.5324 18.7408 2.37889
O 14.7461 19.5349 4.86565
C 10.0166 20.0119 6.7946
C 3.10946 4.79928 4.45846
C 2.39051 5.2178 5.58933
C 5.88795 1.4458 5.67288
C 4.5367 1.53201 5.78002
C 3.90357 2.88237 5.68105
C 8.6004 20.0766 6.70437
C 3.71189 3.54465 4.44072
C 2.56589 4.54639 6.80234
C 3.2631 3.35865 6.81028
Zr 1.25977 9.33822 4.05908
C 1.6056 6.48112 5.56706
C 31.6169 9.07073 8.92282
O 1.98684 7.35844 4.72592
O 32.2448 7.16494 6.61388
O 3.33645 9.62571 4.62472
O 0.499874 8.10981 2.42576
O 1.73607 10.4577 2.24148
O 32.7593 8.52583 8.7678
O 1.25239 9.44651 6.19347
Zr 18.6009 19.5069 7.05474
C 27.3925 10.1417 4.26006
C 20.5174 15.0217 6.45936
C 19.7603 15.4527 5.33837
C 22.986 11.6404 5.34593
C 21.5828 11.578 5.48087
C 20.8058 12.7825 5.49515
C 25.9821 10.0792 4.23993
C 19.0273 16.7628 5.46095
C 20.9796 13.674 6.57143
C 19.4448 14.508 4.38645
C 14.6202 19.5582 2.10532
C 19.9512 13.2045 4.42772
O 19.5768 17.7948 6.03
O 15.0715 16.9604 4.66294
O 20.5748 19.772 6.03956
O 18.1395 18.0588 8.69179
O 19.8374 0.499417 7.94551
O 15.8009 19.0629 2.36104
O 18.532 19.5047 4.91058
C 23.4107 20.3919 6.82821
C 30.6537 4.7416 4.34541
C 31.0539 5.31298 5.60043
C 27.6654 1.55134 5.57363
C 29.065 1.48774 5.44923
C 29.8281 2.78937 5.5186
C 24.8184 20.509 6.87296
C 30.1323 3.43232 4.2744
C 30.7258 4.68068 6.83782
C 30.1383 3.37103 6.78495
Zr 32.2049 9.42005 4.03026
C 31.7529 6.68113 5.54378
C 1.65551 9.14943 8.95394
O 31.8827 7.26059 4.41585
O 0.59314 6.66568 6.33359
O 30.1397 9.6759 4.63231
O 32.8189 8.44444 2.11761
O 31.3813 10.7433 2.47909
O 1.04742 8.27139 8.28513
O 32.235 9.53483 6.21629
Zr 18.5313 1.17737 3.75503
C 19.0193 4.05048 5.36309
C 14.6131 1.33152 8.99714
O 18.9903 3.3423 4.29247
O 15.533 3.89035 6.44772
O 20.621 1.312 4.47711
O 17.7449 2.42042 2.07739
O 19.3341 20.0847 2.78821
O 15.4929 2.15952 8.56103
O 18.7398 1.24957 5.90102
C 27.3512 10.9242 6.54503
C 20.6103 5.66612 4.23115
C 19.6729 5.32796 5.28888
C 23.1538 9.19904 5.3326
C 21.7136 9.14954 5.32413
C 20.9576 7.89051 5.25157
C 25.8973 10.9298 6.46271
C 21.3639 6.88103 4.33338
C 19.3788 6.30824 6.2099
C 19.9478 7.53628 6.16708
Zr 32.1998 11.568 6.99648
C 23.4463 1.08921 4.0498
C 29.8929 15.9413 6.29447
C 31.0031 15.639 5.40423
C 27.6177 19.6631 5.60271
C 29.0666 19.5684 5.52596
C 29.7079 18.2147 5.46172
C 24.8577 1.04806 4.1271
C 31.7721 14.4053 5.45686
C 29.3594 17.2357 6.36946
C 31.4414 16.6771 4.58026
C 1.5944 11.6471 1.8455
C 30.7306 17.9094 4.52521
O 31.8408 13.7015 6.57142
O 0.61046 14.3506 4.88856
O 30.2189 11.453 5.99853
O 32.9848 12.5397 8.82389
O 31.3605 10.2796 8.56146
O 1.01943 12.5747 2.51485
O 32.4526 11.3958 4.89889
Zr 16.8835 2.14315 6.77095
C 16.6691 2.43147 1.44104
O 16.746 0.275926 3.0802
O 16.8245 2.1804 4.59242
Zr 34.0476 12.5683 4.11348
C 34.1465 13.0587 9.20057
O 33.964 10.4737 7.65241
O 33.9472 12.6393 6.29181
Zr 16.6324 18.5629 4.35871
C 17.0006 17.7256 9.15657
O 16.9109 0.0482249 7.32497
O 16.8718 18.3954 6.5003
Zr 33.9538 8.5024 6.90754
C 33.952 7.90022 1.77566
O 34.0484 10.45 3.45873
O 33.935 8.33347 4.70612
C 9.69316 10.231 6.02497
C 12.5572 10.2474 6.16338
C 8.19853 10.1287 5.93816
C 5.38192 10.0239 5.77056
C 6.56329 0.246186 5.59548
C 3.7756 20.6732 5.04005
C 8.00622 0.191447 5.5856
C 10.8344 0.227888 5.63306
C 23.7516 10.4679 5.30328
C 20.9653 10.373 5.38185
C 25.2441 10.4574 5.36212
C 28.1015 10.5453 5.42639
C 26.9806 20.9158 5.66429
C 29.7944 20.7406 5.39737
C 25.5255 20.9907 5.74429
C 22.6704 0.3507 4.99982
C 12.3346 0.226314 5.53935
C 3.89487 10.1573 5.62106
C 21.2817 0.304189 4.872
C 29.5886 10.5248 5.41205
Zr 14.9937 21.6019 4.41003
C 14.6703 24.4194 5.74642
C 19.0471 21.8008 9.3891
O 14.0648 23.4086 5.20421
O 18.5017 23.95 6.68265
O 12.9377 21.4242 5.24992
O 15.6706 22.8924 2.73789
O 13.995 40.5604 2.45654
O 18.2038 22.63 8.93106
O 14.9223 21.6289 6.56524
C 6.23015 30.9321 6.62084
C 13.1589 26.0138 4.55637
C 14.1005 25.8336 5.55895
C 10.4755 29.5378 5.45573
C 11.8925 29.4972 5.37947
C 12.6366 28.2235 5.46034
C 7.6436 30.8405 6.59125
C 12.3437 27.1648 4.57258
C 14.3135 26.7885 6.50578
C 13.6648 28.0667 6.40067
Zr 1.14717 31.8164 6.83529
C 1.62342 34.6895 5.3962
C 31.8178 32.1574 1.70953
O 1.49657 34.0135 6.49221
O 32.9364 34.6409 4.74341
O 3.30907 31.6444 6.40518
O 0.579718 32.5519 8.79643
O 1.94443 30.6273 8.54593
O 32.7941 32.8746 2.10477
O 1.22738 31.8564 4.78795
C 10.2544 20.7362 4.50168
C 2.2988 36.7037 6.62914
C 2.38839 35.902 5.43088
C 5.84935 39.6496 5.50809
C 4.45045 39.6975 5.5854
C 3.68759 38.4453 5.55941
C 8.86322 20.6385 4.35112
C 3.05108 37.947 6.72232
C 3.09237 36.4061 4.34646
C 3.54671 37.7116 4.34435
Zr 15.032 39.7143 6.67638
C 6.22038 31.0387 4.19681
C 14.0744 34.8822 6.17846
C 14.0147 35.6602 5.00549
C 10.5758 31.9036 5.25828
C 11.9773 31.9004 5.16597
C 12.6871 33.1784 5.15909
C 7.63598 31.0055 4.16901
C 14.5067 37.0055 4.9434
C 13.3532 33.7025 6.27291
C 13.3251 35.1752 3.92862
C 18.9445 39.5848 1.42701
C 12.7789 33.9104 3.90157
O 14.6376 37.6143 6.05263
O 17.8697 36.9904 4.30233
O 12.9432 39.8798 6.13583
O 15.9946 38.036 7.67269
O 14.3793 20.5557 8.93034
O 18.004 38.7701 1.78022
O 15.0792 39.762 4.54287
C 10.1219 39.9417 6.51126
C 3.13333 25.2034 3.89771
C 2.43426 25.6162 5.07425
C 5.89196 21.7702 5.18414
C 4.51461 21.8624 5.09898
C 3.81943 23.1615 5.05384
C 8.70381 39.9093 6.45158
C 3.78735 23.9927 3.93954
C 2.34182 24.751 6.16024
C 3.0416 23.5292 6.13435
Zr 1.35673 29.9143 3.8939
C 1.72533 26.9325 5.14054
C 31.6504 29.3383 8.64338
O 1.73247 27.7121 4.08555
O 32.9942 27.157 5.8903
O 3.45476 30.2231 4.66133
O 0.619026 29.1967 1.95798
O 2.29877 31.3926 2.43498
O 32.3716 28.5736 8.01711
O 1.34446 29.848 6.05985
Zr 18.7231 39.7598 6.4569
C 27.5071 31.3701 4.21312
C 20.5496 35.2106 5.97864
C 19.3331 35.3592 5.26885
C 23.0659 31.7836 5.00388
C 21.6883 31.6866 4.99373
C 20.9178 32.9374 5.01312
C 26.0522 31.3945 4.20391
C 18.5952 36.6859 5.35931
C 21.2966 33.9912 5.87477
C 18.9436 34.2877 4.4098
C 14.4377 39.709 1.65151
C 19.6469 33.0863 4.31831
O 18.8113 37.5342 6.27373
O 15.0731 37.3848 3.87954
O 20.7017 39.924 5.43725
O 18.054 38.663 8.28176
O 19.4547 20.6936 8.77136
O 15.6447 39.2469 1.70539
O 18.568 39.6926 4.33826
C 23.3782 40.315 6.0199
C 30.1655 25.4171 4.38454
C 31.1549 25.7292 5.32857
C 27.7796 22.034 5.67614
C 29.1692 21.9684 5.49304
C 29.9196 23.1936 5.39138
C 24.7247 40.3732 6.19195
C 29.5995 24.1221 4.37302
C 31.5121 24.8057 6.33879
C 30.8824 23.553 6.40126
Zr 32.3478 29.7804 3.7098
C 31.957 27.01 5.16534
C 1.92622 29.3898 8.88065
O 31.4311 28.0072 4.57686
O 1.22254 27.3787 6.26123
O 30.2771 30.4146 4.13241
O 33.1802 28.2925 2.38774
O 31.757 30.8829 1.87637
O 0.98846 28.6388 8.44497
O 32.4744 29.8512 5.94716
Zr 18.5176 21.5733 4.2202
C 18.8978 24.4069 5.55202
C 14.7096 21.6675 9.45417
O 18.7041 23.7669 4.483
O 15.8126 24.3078 6.36583
O 20.5825 21.7515 5.0257
O 17.7293 22.1651 2.19389
O 19.4343 40.5322 2.16146
O 15.3535 22.5761 8.84965
O 18.6228 21.4934 6.45483
C 27.4356 29.9053 6.11944
C 20.4449 25.9287 4.38888
C 19.7402 25.5435 5.5424
C 23.1556 29.3458 5.28718
C 21.7791 29.3421 5.2757
C 21.0615 28.0527 5.3948
C 26.0637 29.8862 6.07114
C 21.1022 27.1502 4.30903
C 19.8763 26.332 6.68075
C 20.4388 27.6099 6.59483
Zr 32.1694 31.8487 6.74109
C 23.4074 21.5373 4.69402
C 30.5175 36.4409 6.42493
C 31.0835 35.9386 5.2601
C 27.645 39.681 5.23467
C 29.0362 39.6457 5.27063
C 29.7235 38.3623 5.27635
C 24.786 21.5794 4.69347
C 31.7851 34.655 5.28023
C 29.7509 37.5639 6.48897
C 30.8953 36.6532 4.04044
C 2.03421 32.5696 2.07591
C 30.2426 37.8552 4.05375
O 31.2581 33.7056 5.98556
O 0.985212 34.4392 4.33812
O 30.2171 30.9737 6.31403
O 33.0888 33.2485 8.16792
O 31.7813 30.6122 8.56783
O 0.898652 33.0988 2.16621
O 32.1888 31.8468 4.52437
Zr 16.8344 22.5357 7.17414
C 16.6673 22.8714 1.94302
O 16.7781 20.6208 5.11887
O 16.8242 22.7144 4.93878
Zr 34.0464 32.8658 3.94317
C 34.0272 33.1928 9.02694
O 33.9342 30.7876 7.58067
O 33.9477 32.8638 6.11843
Zr 16.7627 38.7552 3.59933
C 16.9946 37.9809 8.45415
O 16.8517 20.4657 7.87754
O 16.8434 39.9552 5.40914
Zr 34.1523 28.8315 6.72873
C 34.305 28.2596 1.7744
O 34.1487 30.8367 3.08381
O 34.1441 28.7858 4.58246
C 9.81248 30.7444 5.32322
C 12.677 30.6453 5.26858
C 8.35278 30.8317 5.36926
C 5.49574 31.1067 5.42855
C 6.53351 20.5182 5.29296
C 3.77722 0.34532 5.83502
C 8.00393 20.382 5.42563
C 10.8153 20.4463 5.72924
C 23.8047 30.577 5.13847
C 21.041 30.4766 5.11097
C 25.3363 30.5925 5.10171
C 28.184 30.6451 5.18882
C 26.9574 0.383849 5.32946
C 29.7515 0.249782 5.21992
C 25.4923 0.392501 5.23806
C 22.6784 20.8965 5.70992
C 12.3143 20.5371 5.88937
C 4.0007 31.0117 5.50954
C 21.1841 20.8393 5.62354
C 29.6451 30.6431 5.20001
H 20.0423 1.9988 9.2911
H 5.40384 11.0329 7.62894
H 13.5863 5.72571 3.48154
H 9.98148 8.03402 6.15727
H 7.91505 10.9919 7.86246
H 12.0322 7.56759 3.92602
H 13.937 5.23137 7.82515
H 13.2359 7.59361 8.15641
H 31.2959 12.1151 0.946553
H 10.7355 1.56315 3.97489
H 1.45464 16.3781 7.1119
H 6.23019 18.4004 5.29198
H 8.23174 1.67529 4.0417
H 2.39103 18.6187 6.93416
H 3.41689 15.3788 3.39754
H 4.50527 17.5062 3.37879
H 5.68117 9.02074 3.88549
H 12.3491 15.8581 7.2323
H 9.90861 12.3335 5.71278
H 8.11945 9.30122 3.91492
H 11.3728 13.6525 7.5494
H 14.9416 14.384 4.18487
H 19.3023 18.4491 1.53956
H 14.0694 12.1426 4.53684
H 10.4538 19.5862 7.74859
H 3.14807 5.44885 3.51466
H 6.41138 2.39121 5.81146
H 7.94088 20.0341 7.58367
H 4.10076 3.10897 3.56013
H 2.24251 5.00569 7.70516
H 3.27603 2.81767 7.70225
H 30.9566 8.54516 9.56354
H 28.0164 9.74116 3.436
H 20.7666 15.749 7.22656
H 23.48 12.5703 5.49783
H 25.4841 9.9461 3.25628
H 21.4903 13.3082 7.53058
H 19.0231 14.8222 3.50535
H 14.2478 19.4903 1.12027
H 19.7252 12.5469 3.60254
H 23.0139 19.8142 7.60274
H 30.734 5.34513 3.43038
H 27.1757 2.51666 5.93849
H 25.4259 20.2987 7.80579
H 29.9672 2.99225 3.27082
H 30.885 5.10865 7.75297
H 29.8489 2.90256 7.73951
H 2.25018 8.79317 9.85004
H 13.878 1.65897 9.74563
H 27.8142 11.1486 7.52541
H 20.6804 5.05889 3.28828
H 23.8223 8.30241 5.3187
H 25.3312 11.1546 7.34322
H 22.2257 7.11047 3.70189
H 18.6302 6.21399 7.01768
H 19.6527 8.22898 6.98945
H 22.9148 1.6271 3.30232
H 29.5878 15.1651 6.95891
H 27.0215 18.7429 5.60358
H 25.4661 1.51652 3.40913
H 28.6006 17.4595 7.07982
H 32.335 16.5641 3.95895
H 2.05745 11.9398 0.939694
H 31.0517 18.6177 3.79303
H 16.6603 2.78564 0.454905
H 34.1542 13.7374 10.0723
H 17.0138 17.0158 9.95065
H 33.9884 7.29405 0.82845
H 13.633 10.2899 6.14156
H 2.66008 20.8036 4.97931
H 19.9224 10.3624 5.26889
H 30.8124 20.6464 5.16945
H 19.6382 22.0409 10.2393
H 5.81723 30.7414 7.55383
H 12.9007 25.2524 3.82886
H 9.94737 28.6068 5.53545
H 8.11811 30.5958 7.53157
H 11.5392 27.2728 3.8192
H 15.0839 26.6485 7.34192
H 13.9762 28.89 7.04831
H 31.1463 32.5326 0.908593
H 10.8571 21.0061 3.63554
H 1.87121 36.3238 7.4728
H 6.37635 38.6519 5.43683
H 8.49762 20.7601 3.32435
H 3.16361 38.5078 7.61866
H 3.17002 35.7521 3.49551
H 3.93968 38.1033 3.44189
H 5.72785 31.0294 3.23624
H 14.5981 35.2239 7.01074
H 10.0967 32.896 5.31607
H 8.25571 31.0184 3.26673
H 13.4894 33.0892 7.13656
H 13.2227 35.7649 3.06843
H 19.387 39.4814 0.41181
H 12.2361 33.536 2.95674
H 10.635 39.3776 7.23496
H 3.13473 25.7208 3.02059
H 6.48206 22.6556 5.24515
H 8.21673 39.2154 7.17768
H 4.53085 23.8034 3.11928
H 1.59869 24.9735 6.91384
H 2.96957 22.9432 7.03809
H 31.1106 28.9091 9.50772
H 28.1384 31.9849 3.45417
H 20.9382 35.9751 6.60726
H 23.538 32.6646 4.76944
H 25.5008 31.9052 3.42589
H 22.0786 33.8492 6.60662
H 17.9645 34.3341 3.92112
H 13.8095 39.4165 0.830294
H 19.2136 32.282 3.81988
H 22.8794 39.7275 6.72329
H 29.9051 26.1428 3.53136
H 27.3044 23.0832 5.77945
H 25.1257 40.0271 7.11045
H 28.86 23.9088 3.6993
H 32.335 24.9825 7.06821
H 31.1432 22.8313 7.1888
H 2.46732 29.0378 9.73735
H 14.1655 21.999 10.3908
H 27.9627 29.3176 6.88075
H 20.5841 25.1969 3.59395
H 23.6941 28.4789 4.95837
H 25.6026 29.3084 6.85303
H 21.6086 27.4411 3.3702
H 19.5865 25.9913 7.6051
H 20.519 28.2306 7.5191
H 22.9015 21.9543 3.84162
H 30.7733 35.9908 7.37257
H 27.0254 38.6955 5.1747
H 25.3158 21.7769 3.76283
H 29.3954 37.9158 7.45987
H 31.0558 36.1599 3.13811
H 2.71631 32.9779 1.34578
H 30.1444 38.447 3.14274
H 16.62 23.4656 1.00927
H 33.97 33.7698 9.96213
H 16.8461 37.4967 9.44967
H -0.0522882 27.4675 0.933149
H 13.7433 30.5401 5.35793
H 2.68514 0.335811 5.95129
H 19.9489 30.5207 5.26717
H 30.7971 0.245848 5.05283
Ni 17.1447 9.86836 5.61601
O 16.4624 8.49324 4.40031
H 15.5313 8.78725 4.27109
H 16.4338 7.56989 4.79571
O 17.2321 11.3961 6.72925
H 17.8348 12.0499 6.3104
H 16.32 11.8329 6.53076
543
Atoms. Timestep: 400000
Zr 15.9008 1.16679 5.15256
C 15.5327 3.88242 6.72507
C 19.7765 0.928034 10.3184
O 15.6988 3.34981 5.55375
O 19.0752 3.53108 7.6282
O 13.7375 0.771213 5.5994
O 16.6629 2.25756 3.30939
O 15.2969 20.5857 3.31709
O 18.7178 1.61552 10.1088
O 15.8149 1.07241 7.28814
C 6.82363 10.5501 7.21263
C 13.5384 5.12378 6.03126
C 14.7457 5.06787 6.7812
C 11.1122 8.82208 6.33536
C 12.5327 8.84743 6.47286
C 13.2949 7.51032 6.64368
C 8.23681 10.4824 7.26338
C 12.8169 6.29605 6.01773
C 15.1527 6.14125 7.49779
C 14.4723 7.42194 7.42117
Zr 2.00692 11.1805 7.51864
C 2.40909 14.0471 6.02338
C 32.3424 11.6348 2.60945
O 2.95634 12.9924 6.55735
O 32.9858 13.7375 5.10063
O 3.97179 10.2927 7.14063
O 1.44685 12.7585 9.0401
O 2.42777 10.4342 9.5148
O 33.5588 12.0188 2.81647
O 2.04107 11.2939 5.32687
C 10.8946 0.516633 5.5819
C 3.89215 15.6794 7.25151
C 3.17504 15.357 6.10384
C 6.57406 19.174 6.64395
C 5.14976 19.14 6.60359
C 4.40145 17.8738 6.387
C 9.54292 0.488943 5.61848
C 4.41006 16.94 7.42344
C 2.97428 16.3815 5.13253
C 3.64969 17.5386 5.23906
Zr 15.7323 19.233 7.98817
C 6.81179 9.76838 4.91124
C 13.7131 14.6254 7.40052
C 14.6552 15.0505 6.41538
C 11.0732 11.1739 5.80768
C 12.4904 11.2965 5.98943
C 13.0943 12.6299 6.12597
C 8.21018 9.76718 4.92472
C 15.3649 16.3274 6.49531
C 12.8777 13.526 7.15981
C 14.8871 14.1674 5.32541
C 19.5062 19.2901 2.89008
C 14.0846 12.9672 5.15917
O 14.9909 17.2035 7.39506
O 18.8636 16.637 5.37099
O 13.6695 19.4426 7.25036
O 16.4533 17.6426 9.42492
O 15.4963 40.5119 9.7643
O 18.8414 18.4215 3.50771
O 15.5815 19.2536 5.84629
C 10.8727 19.6279 7.57295
C 3.82519 4.6451 5.66175
C 2.96244 5.13263 6.59973
C 6.65174 1.48859 7.2214
C 5.24635 1.54214 7.26037
C 4.48201 2.85105 7.13324
C 9.51031 19.5358 7.61453
C 4.54365 3.51995 5.88315
C 2.81574 4.49335 7.81843
C 3.52413 3.28014 8.05485
Zr 1.96288 9.17478 4.7582
C 2.16994 6.36249 6.40331
C 32.6206 9.33236 10.0556
O 2.60404 7.23176 5.63616
O 33.0724 6.82662 7.30944
O 4.01055 9.86449 4.97127
O 0.989691 7.71144 3.35767
O 2.67432 10.2878 3.0155
O 33.7059 8.78126 9.76257
O 1.83988 9.17824 6.89734
Zr 19.2591 19.224 7.90232
C 27.9388 10.4973 5.49154
C 20.9207 14.5915 7.59193
C 20.4482 15.0863 6.35381
C 23.8042 11.2283 6.90959
C 22.4716 11.263 6.53529
C 21.6993 12.5461 6.52193
C 26.5701 10.43 5.61161
C 19.6922 16.338 6.37065
C 21.5799 13.3645 7.66428
C 20.547 14.2362 5.25144
C 15.6265 19.4694 2.78556
C 21.0357 12.9088 5.36629
O 20.1163 17.2411 7.21067
O 16.4314 16.5038 5.85701
O 21.408 19.4918 7.1449
O 18.6609 18.118 9.62016
O 20.339 0.267896 9.41261
O 15.9971 18.4916 3.51278
O 19.3951 19.3045 5.73361
C 24.1796 19.8872 7.76668
C 31.6461 4.42247 5.03668
C 31.7838 5.19876 6.22575
C 28.4826 1.37454 6.22755
C 29.8479 1.36336 6.14803
C 30.6323 2.59549 6.2544
C 25.5539 19.639 7.59316
C 31.2841 3.10031 5.1167
C 31.28 4.62206 7.44333
C 30.6008 3.41664 7.42568
Zr 32.78 9.437 4.91067
C 32.4397 6.51781 6.20686
C 2.34314 9.20252 9.8127
O 32.3335 7.27193 5.19307
O 1.00079 6.45355 6.88016
O 30.6625 9.60832 5.63963
O 33.5986 8.80356 2.92905
O 31.8064 10.7172 3.33836
O 1.79456 8.3127 9.06426
O 32.7746 9.42762 7.08266
Zr 19.341 0.978462 5.20232
C 19.6863 3.88401 6.55085
C 15.4962 1.10616 10.2014
O 19.7834 3.15549 5.51993
O 16.1966 3.47098 7.74499
O 21.4779 0.858868 5.71027
O 18.8647 1.98614 3.26504
O 19.4665 20.4829 3.25731
O 16.3214 1.98953 9.75724
O 19.5447 0.982139 7.36888
C 28.1187 9.90472 7.80385
C 21.2564 5.46759 5.45757
C 20.3823 5.14984 6.55114
C 23.8662 8.81154 6.56344
C 22.4243 8.84736 6.37275
C 21.7337 7.6137 6.5035
C 26.7498 9.78393 7.87527
C 21.9101 6.69715 5.48111
C 20.327 6.01724 7.6439
C 20.9643 7.26472 7.64557
Zr 33.0044 11.5008 7.72853
C 24.2136 40.2774 5.13357
C 31.0513 15.7774 7.39009
C 31.8203 15.4417 6.26151
C 28.4444 19.2241 6.49644
C 29.8553 19.2342 6.43895
C 30.5403 17.9312 6.43205
C 25.6036 40.4443 5.12484
C 32.6426 14.2292 6.22758
C 30.3507 16.981 7.43381
C 32.0503 16.4035 5.27483
C 2.46562 11.476 2.59086
C 31.498 17.6519 5.36842
O 32.9656 13.6834 7.32399
O 1.26717 13.9837 5.42862
O 30.8189 11.2311 7.26295
O 33.7932 12.6266 9.4856
O 32.1131 10.3049 9.38238
O 1.37385 12.1462 2.80425
O 32.8381 11.496 5.53454
Zr 17.7192 1.86089 8.0921
C 17.798 2.42342 2.75971
O 17.5747 0.144384 4.25867
O 17.7185 2.09428 5.91717
Zr 0.15022 12.2431 4.66815
C 0.47342 12.9019 9.81416
O 0.180676 10.3717 8.29526
O 0.212523 12.3245 6.83693
Zr 17.4849 18.3418 5.21151
C 17.5753 17.564 10.0176
O 17.6141 40.3726 8.77669
O 17.4868 18.1509 7.36726
Zr -0.00582141 8.33249 7.72744
C 34.4471 7.8368 2.73981
O 0.132178 10.1965 4.08025
O 0.0833261 8.39062 5.57312
C 10.421 9.95479 6.0343
C 13.2032 10.128 6.2985
C 8.95488 10.0188 6.12592
C 6.07898 10.181 6.06272
C 7.38965 0.337192 6.97193
C 4.5237 20.3168 6.62451
C 8.88255 0.397655 6.84396
C 11.6491 0.491666 6.7713
C 24.5102 10.0215 6.87383
C 21.7328 10.059 6.4558
C 25.9246 10.0535 6.79439
C 28.6946 10.4426 6.65767
C 27.7365 20.416 6.56333
C 30.571 20.488 6.50469
C 26.2864 20.354 6.61988
C 23.5509 40.4279 6.32062
C 13.1365 0.442491 6.68865
C 4.58681 10.2767 6.03318
C 22.0899 40.4768 6.27837
C 30.132 10.4679 6.47766
Zr 15.7404 21.3749 5.34226
C 15.4758 24.3403 6.68386
C 19.5771 21.1563 10.4181
O 15.0238 23.3795 5.97778
O 19.1117 23.9131 7.69563
O 13.6215 21.166 5.88723
O 16.355 22.7543 3.71325
O 15.2764 0.172992 3.29729
O 18.6316 21.8628 10.0046
O 15.7172 21.3481 7.52828
C 6.94899 30.1254 7.92057
C 13.8198 26.0065 5.81798
C 14.8579 25.6937 6.63528
C 11.3746 29.448 6.94095
C 12.7817 29.4193 6.96319
C 13.5199 28.1475 6.83512
C 8.34848 30.2324 8.04048
C 13.1091 27.2029 5.91206
C 15.2997 26.6587 7.60927
C 14.6356 27.872 7.66762
Zr 2.1949 31.7032 8.23706
C 2.39756 34.658 6.80652
C 32.8619 31.4651 3.14052
O 2.78134 33.79 7.67749
O 33.2545 34.1001 5.3585
O 4.21175 31.5921 7.43996
O 1.29228 32.5834 10.0826
O 2.82768 30.7696 10.1443
O 34.0088 31.9801 3.28758
O 2.22653 31.5709 6.04774
C 10.8354 20.9289 5.5241
C 4.47998 35.9598 7.24232
C 3.14735 35.9315 6.77769
C 6.7053 39.7144 7.03006
C 5.29681 39.6964 7.17366
C 4.50432 38.4127 7.15974
C 9.45864 20.8963 5.53976
C 5.12769 37.1832 7.44942
C 2.54144 37.1191 6.38435
C 3.21278 38.3548 6.58352
Zr 15.7766 39.622 7.79873
C 7.08925 31.2066 5.74088
C 14.2449 35.2259 7.85464
C 14.7909 35.5499 6.64735
C 11.3375 31.7928 7.21651
C 12.7877 31.8268 7.1665
C 13.5099 33.1487 6.94521
C 8.48358 31.1903 5.82127
C 15.4426 36.8254 6.42567
C 13.6286 33.981 7.98457
C 14.6993 34.6881 5.53532
C 19.7 39.4474 2.76867
C 13.9945 33.4848 5.69224
O 14.861 37.8588 6.92703
O 18.9751 37.0245 5.38835
O 13.7635 40.4844 7.66856
O 16.4188 37.9052 9.04647
O 15.2973 20.2243 9.94685
O 18.63 38.7637 3.09623
O 15.7675 39.6393 5.68288
C 10.9793 0.346422 7.98792
C 4.2241 25.1345 6.08847
C 3.26705 25.3318 7.0969
C 6.61465 21.5097 6.82855
C 5.1995 21.5298 6.75055
C 4.5447 22.8289 6.84722
C 9.62704 0.310479 8.04737
C 4.8131 23.8677 5.882
C 3.05928 24.3355 8.07163
C 3.75416 23.1493 7.99741
Zr 2.12768 29.4425 5.70274
C 2.51574 26.5999 7.16877
C 33.0049 29.8532 10.7106
O 2.40544 27.2506 6.04685
O 33.8563 26.7769 7.77704
O 4.30147 29.8584 5.97661
O 1.49638 28.7648 3.67953
O 2.95352 30.4402 3.92954
O 33.5728 28.8445 10.1667
O 2.26852 29.512 7.90622
Zr 19.4023 39.5233 7.88836
C 28.1444 29.8808 5.68947
C 20.0625 34.4653 7.67454
C 20.2172 35.3936 6.58915
C 23.8849 31.7313 6.87963
C 22.4478 31.6665 6.81513
C 21.6632 32.9197 6.71594
C 26.7557 30.0097 5.72007
C 19.3723 36.568 6.54425
C 20.7233 33.21 7.68508
C 21.1678 35.1232 5.6214
C 15.3815 39.55 2.83739
C 21.8326 33.8539 5.65924
O 19.3258 37.2935 7.63887
O 16.5232 36.8858 5.79002
O 21.5054 39.572 6.97489
O 18.6119 38.1706 9.51044
O 20.076 20.2048 9.70907
O 15.9421 38.6117 3.51519
O 19.402 39.5043 5.74133
C 24.2245 0.202483 7.49698
C 31.1097 25.2586 5.84117
C 32.081 25.3951 6.83474
C 28.4429 21.6588 6.54642
C 29.8566 21.7204 6.55093
C 30.6127 23.0062 6.64237
C 25.6167 0.311885 7.45744
C 30.5175 24.0151 5.64262
C 32.3507 24.3317 7.70446
C 31.4401 23.2583 7.77664
Zr 33.1721 29.432 5.51648
C 32.7783 26.6809 7.0145
C 2.42754 29.7161 10.8015
O 32.2604 27.7341 6.5373
O 1.82485 26.8926 8.18338
O 31.0465 29.824 5.82326
O 34.1052 27.8435 4.29908
O 32.6152 30.2657 3.52095
O 1.4776 28.9867 10.4139
O 33.1094 29.5326 7.7269
Zr 19.2639 21.4099 5.24042
C 19.8018 24.2587 6.62224
C 15.3552 21.4345 10.228
O 19.8791 23.4647 5.61488
O 16.4432 24.114 7.51012
O 21.3349 21.4429 6.13238
O 18.5062 22.1662 3.35349
O 19.9558 40.5872 3.32064
O 15.8463 22.3163 9.45614
O 19.4192 21.33 7.43546
C 28.156 30.9792 7.83683
C 21.3617 25.8403 5.60616
C 20.3858 25.5714 6.62423
C 23.9504 29.357 6.80398
C 22.5672 29.2695 6.81443
C 21.8507 27.935 6.75499
C 26.7967 31.0331 7.93338
C 22.1019 27.055 5.70707
C 20.2362 26.4035 7.69198
C 20.9871 27.5859 7.75992
Zr 33.1422 31.6575 8.15023
C 24.1341 20.9348 5.63983
C 31.9124 36.6153 7.60731
C 31.8478 35.7234 6.48939
C 28.4208 39.5418 6.48456
C 29.8273 39.5165 6.49754
C 30.5784 38.2769 6.43558
C 25.5626 20.9005 5.53122
C 32.7081 34.5056 6.46966
C 31.3196 37.9196 7.57591
C 31.1573 36.1665 5.30387
C 2.83836 31.5995 3.38698
C 30.4541 37.3953 5.33722
O 32.5545 33.7228 7.48371
O 1.49486 34.3972 5.92021
O 31.0158 31.0546 7.7403
O 33.6656 33.0015 9.83938
O 33.0443 31.035 10.2611
O 2.15765 32.5513 3.88823
O 33.0766 31.5835 5.95298
Zr 17.5874 22.3251 8.04497
C 17.4548 22.8268 3.01925
O 17.523 20.3534 6.00092
O 17.5311 22.5335 5.88171
Zr 0.446796 32.5696 5.24974
C 0.313663 33.3983 10.1334
O 0.424771 30.6136 7.6628
O 0.437251 32.5446 7.42867
Zr 17.5922 38.681 4.95881
C 17.4437 37.7139 9.79225
O 17.5316 20.2456 8.69093
O 17.6648 39.8675 6.6917
Zr 0.395834 28.5688 8.48429
C 0.503037 27.9794 3.4102
O 0.44316 30.4582 4.97619
O 0.314388 28.2649 6.32915
C 10.6378 30.623 7.01181
C 13.4813 30.601 7.03349
C 9.15785 30.615 6.96028
C 6.32929 30.65 6.80378
C 7.29776 20.333 6.78243
C 4.6177 0.282654 7.42066
C 8.77624 20.2836 6.64544
C 11.5478 20.3123 6.55368
C 24.6458 30.5704 6.89205
C 21.8019 30.4432 6.72346
C 26.0824 30.6042 6.79454
C 28.8688 30.4015 6.77258
C 27.7618 0.123006 6.30342
C 30.4965 0.127565 6.2374
C 26.3272 0.0754366 6.30834
C 23.4203 20.5238 6.7932
C 13.019 20.2937 6.55196
C 4.86281 30.6684 6.80754
C 21.9724 20.5707 6.83239
C 30.4115 30.4017 6.75114
H 20.0742 0.805893 11.3386
H 6.26488 10.8312 8.10192
H 13.273 4.32 5.37688
H 10.6576 7.92923 6.76393
H 8.74534 10.9098 8.09123
H 11.9643 6.28758 5.35111
H 16.1182 6.1187 8.01875
H 14.8118 8.33208 7.93546
H 31.8032 12.1728 1.86578
H 11.4184 0.529246 4.63328
H 3.87533 15.0046 8.07652
H 7.12486 18.2423 6.69025
H 8.92496 0.535223 4.75112
H 4.87359 17.1598 8.43027
H 2.39443 16.1603 4.25456
H 3.52096 18.2855 4.42333
H 6.22056 9.34988 4.06366
H 13.5619 15.1922 8.3215
H 10.4839 12.0709 5.70985
H 8.77604 9.32924 4.09078
H 12.0689 13.4019 7.77719
H 15.6796 14.3105 4.61811
H 20.1762 18.9684 2.06214
H 14.2469 12.3001 4.33243
H 11.4468 19.1814 8.40754
H 3.94697 5.19144 4.70706
H 7.17892 2.42758 7.15755
H 9.01528 18.9794 8.38986
H 5.32822 3.23564 5.15891
H 2.1397 4.79149 8.62728
H 3.39968 2.74829 9.02064
H 32.2145 9.17715 11.0664
H 28.4541 10.629 4.51312
H 20.7845 15.2328 8.46568
H 24.3484 12.1557 7.09756
H 26.0019 10.3814 4.6932
H 22.0333 13.072 8.5358
H 20.346 14.6 4.25914
H 15.368 19.2802 1.75991
H 20.894 12.213 4.50959
H 23.6629 19.6404 8.6868
H 31.8612 4.85957 4.09194
H 27.9046 2.29827 6.38645
H 26.0032 19.0239 8.31977
H 31.4811 2.43233 4.31503
H 31.3628 5.07416 8.41545
H 30.1579 2.93921 8.2943
H 3.04867 8.91393 10.5836
H 14.9885 1.33432 11.1214
H 28.8007 9.55061 8.62974
H 21.4349 4.67536 4.72804
H 24.4487 7.92992 6.29698
H 26.3033 9.68403 8.86703
H 22.4832 7.03617 4.61315
H 19.7226 5.74297 8.46435
H 20.9254 7.8594 8.47133
H 23.7403 40.0927 4.1646
H 30.9623 15.1279 8.24116
H 27.9507 18.2718 6.52563
H 26.1598 40.4674 4.18704
H 29.7155 17.1738 8.36058
H 32.8111 16.2379 4.61037
H 2.97323 11.7344 1.69006
H 31.8413 18.4079 4.67196
H 17.831 2.79285 1.75635
H 0.632337 13.4592 10.7686
H 17.643 16.832 10.8506
H 34.2396 7.18528 1.9077
H 14.2631 10.1747 6.52537
H 3.48706 20.2758 6.43254
H 20.6521 10.0363 6.46763
H 31.7015 20.4925 6.53191
H 20.0278 21.3969 11.3667
H 6.41589 29.8293 8.82881
H 13.547 25.2487 5.07735
H 10.7964 28.5052 6.83163
H 8.75229 29.7895 8.9414
H 12.4295 27.4036 5.14323
H 16.2118 26.4839 8.25255
H 14.9883 28.571 8.39665
H 32.1965 31.8302 2.3823
H 11.3119 21.3774 4.69708
H 5.02917 35.0663 7.48015
H 7.27443 38.8125 6.81877
H 8.91931 21.3198 4.68369
H 6.08672 37.1702 7.88241
H 1.59671 37.1527 5.78728
H 2.87309 39.2088 5.98395
H 6.60785 31.7131 4.96949
H 14.2294 35.8845 8.6678
H 10.8093 32.7595 7.13888
H 9.08575 31.78 5.10626
H 13.3738 33.6765 8.93993
H 15.1975 34.9514 4.64055
H 20.1459 39.199 1.82647
H 13.8526 32.8135 4.88668
H 11.4901 0.259879 8.88733
H 4.45852 25.9913 5.43087
H 7.1724 22.4789 6.6563
H 9.10675 0.213132 9.0476
H 5.51796 23.5953 5.04145
H 2.44909 24.4992 8.95186
H 3.52525 22.389 8.70179
H 32.672 29.7698 11.753
H 28.5863 29.6585 4.75387
H 19.2472 34.6671 8.40538
H 24.337 32.698 7.04792
H 26.2395 29.7485 4.81856
H 20.4536 32.4856 8.46984
H 21.3514 35.8562 4.8518
H 14.6973 39.2628 2.02588
H 22.5481 33.6214 4.85046
H 23.6571 0.366715 8.33128
H 30.8258 26.1407 5.2622
H 27.9173 22.6227 6.65215
H 26.1128 0.549746 8.38867
H 29.8286 23.9122 4.77023
H 33.1221 24.3979 8.4525
H 31.548 22.4862 8.55771
H 3.02319 29.432 11.6658
H 14.9106 21.769 11.2097
H 28.6787 31.5542 8.61648
H 21.589 25.1858 4.83174
H 24.4558 28.445 6.65581
H 26.2745 31.4481 8.84219
H 22.7373 27.2946 4.85808
H 19.6924 26.152 8.56207
H 20.8582 28.3508 8.5765
H 23.5544 21.1198 4.72637
H 32.5711 36.3026 8.44415
H 27.7759 38.6843 6.8416
H 26.0407 21.1671 4.55103
H 31.4074 38.5902 8.43182
H 31.039 35.5322 4.43262
H 3.30268 31.7767 2.45414
H 29.8449 37.7224 4.44638
H 17.4092 23.2925 2.0259
H 0.442705 34.273 10.7749
H 17.4782 36.9263 10.4895
H 0.530475 27.3831 2.53052
H 14.5741 30.5247 7.02785
H 3.5704 0.215378 7.6128
H 20.7355 30.3948 6.69331
H 31.5599 0.0934393 6.13607
Ni 26.7447 24.6529 8.19462
O 28.4302 25.548 8.29882
H 28.7454 25.9598 7.46402
H 29.0861 24.88 8.40558
O 25.2144 23.8225 7.42823
H 25.2553 23.6537 6.46933
H 25.2169 22.9101 7.82448
543
Atoms. Timestep: 600000
Zr 15.6751 0.997204 4.92058
C 15.3896 3.86421 6.47638
C 19.6531 1.27861 9.87945
O 15.2547 3.07709 5.46965
O 18.6353 3.51641 7.40041
O 13.5829 0.796691 5.6167
O 16.3374 2.40476 3.35019
O 15.5284 20.2299 2.85761
O 18.513 1.80627 9.65445
O 15.386 1.00589 7.12818
C 6.75761 10.3698 7.91784
C 13.8041 5.43236 5.52718
C 14.7126 5.13672 6.47949
C 11.0809 8.80704 6.55234
C 12.5009 8.86911 6.48979
C 13.3042 7.59489 6.48121
C 8.16586 10.3981 7.87486
C 13.1125 6.67692 5.47061
C 14.8987 6.07791 7.51923
C 14.2328 7.31778 7.47563
Zr 1.88016 10.897 8.3136
C 2.34741 13.7385 6.87934
C 32.3812 11.2139 3.57707
O 2.8822 12.7042 7.44202
O 33.0788 13.5355 5.79275
O 4.02647 10.608 7.78263
O 1.31773 12.5271 9.62803
O 2.53715 9.85366 10.1853
O 33.5745 11.674 3.66767
O 1.85582 10.9018 6.17226
C 10.6864 40.2632 5.10171
C 3.10696 15.8369 7.85733
C 3.06023 14.976 6.77679
C 6.38165 18.7867 6.48057
C 5.0207 18.7722 6.56393
C 4.31508 17.5465 6.56902
C 9.28641 40.3812 5.25152
C 3.63864 17.1214 7.76185
C 3.7121 15.3619 5.61842
C 4.39452 16.6024 5.56218
Zr 15.5633 19.3427 7.78889
C 6.75321 9.0247 5.92781
C 13.2661 14.8474 7.41368
C 14.23 15.1395 6.39208
C 10.9474 11.2019 6.73282
C 12.3607 11.3053 6.5187
C 13.1232 12.5727 6.6389
C 8.12617 9.12992 5.79055
C 15.044 16.4053 6.44072
C 12.7267 13.5792 7.56619
C 14.4974 14.1855 5.45564
C 19.4362 18.8542 2.79029
C 14.0066 12.8825 5.59382
O 14.5785 17.4224 7.10501
O 18.6477 16.4566 5.81575
O 13.532 19.4631 6.95997
O 16.2267 18.0496 9.45656
O 14.6486 0.140673 9.06383
O 18.4573 18.186 3.20502
O 15.5908 19.2884 5.59933
C 10.7674 19.2711 7.07251
C 3.63494 4.1355 5.81202
C 2.85647 4.59068 6.90109
C 6.47942 1.05339 6.78558
C 5.13104 0.991754 7.13638
C 4.25373 2.1147 7.04521
C 9.32679 19.2468 7.17518
C 4.22043 2.86234 5.86037
C 2.95101 3.84436 8.05828
C 3.62783 2.64224 8.15133
Zr 1.70299 8.82482 5.66922
C 2.20869 5.93317 6.90657
C 32.5354 8.87657 10.5837
O 2.70608 6.91711 6.24517